      242
 energy: -458.293799615888 gnorm: 0.000419831871 xtb: 6.2.3 (unknown)
  C         -3.559353         4.542639         7.542758
  C         -4.246380         3.731420         6.591581
  C         -3.984303         3.976002         5.211400
  C         -2.917111         4.827529         4.827966
  C         -2.047257         5.345871         5.815664
  C         -2.481086         5.290573         7.168103
  C         -4.632182         3.187456         4.229603
  C         -4.436498         3.469569         2.849589
  C         -3.477871         4.439018         2.461256
  C         -2.621899         4.994752         3.442319
  C         -4.997831         2.615457         1.870323
  C         -4.833109         2.920040         0.490345
  C         -3.996799         3.996741         0.099515
  C         -3.210080         4.652255         1.081007
  C         -5.280553         2.001468        -0.491787
  C         -5.142003         2.318807        -1.871770
  C         -4.439999         3.487262        -2.263875
  C         -3.748863         4.236356        -1.280445
  C         -5.468502         1.350268        -2.851008
  C         -5.366690         1.678119        -4.231037
  C         -4.817619         2.920450        -4.622097
  C         -4.216546         3.752067        -3.646030
  C         -5.588159         0.681811        -5.212778
  C         -5.556723         1.038730        -6.593005
  C         -5.161151         2.323953        -6.965352
  C         -4.644412         3.218767        -6.007958
  C         -5.600830        -0.683367        -4.829203
  C         -5.472287        -1.687867        -5.816800
  C         -5.696249        -1.312406        -7.169294
  C         -5.771936        -0.002378        -7.544124
  C         -3.209344         4.664608        -4.044062
  C         -2.944899         4.878145        -5.436053
  C         -3.774620         4.265536        -6.374990
  C         -5.550658        -1.018775        -3.443529
  C         -5.164115        -2.323450        -3.053974
  C         -4.666226        -3.211136        -4.042729
  C         -4.879527        -2.946825        -5.434770
  C         -3.753747        -4.218286        -3.644426
  C         -2.921986        -4.819462        -4.620301
  C         -3.220252        -4.646579        -6.006215
  C         -4.266907        -3.776752        -6.373553
  C         -1.679595        -5.368252        -4.229021
  C         -0.683254        -5.589962        -5.210666
  C         -1.040200        -5.559118        -6.590904
  C         -2.325409        -5.163644        -6.963413
  C          0.681931        -5.602283        -4.827091
  C          1.686414        -5.474275        -5.814763
  C          1.310937        -5.698994        -7.167133
  C          0.000907        -5.774830        -7.541914
  C          1.017344        -5.551168        -3.441446
  C          2.321928        -5.164059        -3.052138
  C          3.209606        -4.666859        -4.041235
  C          2.945359        -4.881249        -5.433124
  C          4.216787        -3.754126        -3.643587
  C          4.818041        -2.923147        -4.620074
  C          4.645100        -3.222403        -6.005767
  C          3.775341        -4.269380        -6.372341
  C          5.367027        -1.680561        -4.229700
  C          5.588529        -0.684850        -5.212039
  C          5.557225        -1.042632        -6.592051
  C          5.161924        -2.328164        -6.963647
  C          5.601058         0.680564        -4.829292
  C          5.472364         1.684441        -5.817504
  C          5.696245         1.308183        -7.169789
  C          5.772189        -0.002066        -7.543810
  C          5.550882         1.016805        -3.443810
  C          5.164344         2.321718        -3.055048
  C          4.666391         3.208782        -4.044325
  C          4.879605         2.943628        -5.436220
  C          3.753926         4.216167        -3.646595
  C          2.922201         4.816839        -4.622802
  C          3.220486         4.643227        -6.008618
  C          4.267029         3.773069        -6.375457
  C          1.679826         5.365880        -4.231846
  C          0.683565         5.587227        -5.213648
  C          1.040615         5.555844        -6.593843
  C          2.325778         5.160051        -6.966094
  C         -0.681640         5.599679        -4.830176
  C         -1.685987         5.471148        -5.817913
  C         -1.310463         5.695534        -7.170313
  C         -0.000402         5.771331        -7.545047
  C         -1.017158         5.549238        -3.444526
  C         -2.321780         5.162361        -3.055136
  C         -1.351730        -5.469467        -2.848948
  C          0.000734        -5.641291        -2.460434
  C          5.468648        -1.351865        -2.849853
  C          5.641201         0.000755        -2.462226
  C          1.351879         5.467731        -2.851849
  C         -0.000605         5.639748        -2.463500
  C         -5.641039        -0.002126        -2.462575
  C          4.440030        -3.488483        -2.261563
  C          5.141974        -2.319789        -1.870063
  C          3.489281         4.440181        -2.264511
  C          2.320552         5.141820        -1.872559
  C         -3.489096        -4.441508        -2.262211
  C         -2.320435        -5.143033        -1.869855
  C          5.016100         2.630491        -1.674376
  C          4.238804         3.749786        -1.280899
  C         -2.629732         5.013673        -1.674324
  C         -5.015811        -2.631365        -1.673121
  C         -4.238527        -3.750436        -1.278991
  C          2.629777        -5.014659        -1.671383
  C          3.748802        -4.237035        -1.277793
  C         -0.342898         5.642359        -1.083247
  C         -1.683744         5.403330        -0.691581
  C         -5.643997        -0.344342        -1.082304
  C         -5.405587        -1.685268        -0.690517
  C          0.342964        -5.643288        -1.080163
  C          1.683773        -5.403973        -0.688521
  C          5.644096         0.343791        -1.082153
  C          5.405840         1.684983        -0.691199
  C         -5.612990         0.679292        -0.100893
  C         -2.003087        -5.281008        -0.489818
  C         -0.680689        -5.612392        -0.098776
  C          5.280302        -2.001621        -0.490247
  C          5.612819        -0.679245        -0.100122
  C          2.003151         5.280485        -0.492611
  C          0.680697         5.611898        -0.101792
  C         -3.999108        -3.998201         0.101030
  C         -2.922027        -4.833906         0.492130
  C          3.996547        -3.996599         0.102062
  C          4.832693        -2.919582         0.492382
  C          3.999402         3.998394         0.098976
  C          2.922174         4.834142         0.489594
  C          2.007363        -5.291421         0.692397
  C          3.209864        -4.651737         1.083828
  C          5.294452         2.009503         0.689594
  C          4.655460         3.212462         1.080727
  C         -2.007410         5.291472         0.689373
  C         -5.294172        -2.008930         0.690473
  C         -4.655074        -3.211605         1.082326
  C          5.648736        -0.335600         1.279656
  C          5.571085         1.024987         1.672811
  C          0.337771         5.647580         1.278170
  C         -1.022513         5.568461         1.672106
  C         -5.649018         0.336455         1.279083
  C         -5.571019        -1.023875         1.673101
  C         -0.337815        -5.647470         1.281214
  C          1.022453        -5.568158         1.675187
  C          2.617533         4.999089         1.869533
  C          1.343967         5.485093         2.261576
  C         -5.485349         1.342507         2.262451
  C         -2.617433        -4.998113         1.872166
  C         -1.344035        -5.484313         2.264489
  C          4.997156        -2.614154         1.872215
  C          5.484689        -1.340994         2.263638
  C         -4.442066        -3.479280         2.462634
  C         -3.472115        -4.437298         2.851239
  C          3.477482        -4.437696         2.463996
  C          4.435787        -3.467746         2.851918
  C          4.442471         3.480999         2.460875
  C          3.472410         4.439131         2.848923
  C         -5.498321        -1.357872         3.053946
  C         -4.998190        -2.623355         3.443522
  C          1.356405        -5.494344         3.055982
  C          2.621618        -4.993269         3.445244
  C          5.498527         1.359860         3.053441
  C          4.998562         2.625630         3.442239
  C         -1.356528         5.495298         3.052922
  C         -1.004898        -5.554424         3.646676
  C          0.350781        -5.650319         4.044868
  C          5.555588        -1.001105         3.645616
  C          5.653768         0.354676         4.042883
  C          1.004754         5.555813         3.643724
  C         -0.350962         5.651641         4.041809
  C         -5.556350         1.003449         3.644616
  C         -5.653942        -0.352120         4.042764
  C          4.631151        -3.184726         4.231809
  C          5.271023        -1.986408         4.622230
  C          3.190127         4.635014         4.228884
  C          1.991194         5.273379         4.619808
  C         -5.272207         1.989439         4.620652
  C         -3.189948        -4.632490         4.231315
  C         -1.991248        -5.271095         4.622586
  C          4.831554         2.921551         4.827758
  C          3.979372         3.988298         5.210895
  C         -4.831166        -2.918428         4.829220
  C         -3.979131        -3.985104         5.212930
  C          2.916607        -4.825201         4.830837
  C          3.983301        -3.972890         5.213950
  C         -0.690778         5.656449         5.433811
  C         -5.659296        -0.691852         5.434774
  C         -5.349721        -2.048510         5.816758
  C          0.690520        -5.654603         5.436877
  C          2.046879        -5.343476         5.818702
  C          5.659166         0.695328         5.434678
  C          5.350520         2.052484         5.815823
  C         -5.400775         1.669317         6.006508
  C         -5.688895         0.339192         6.373649
  C         -1.670989        -5.398823         6.008482
  C         -0.340508        -5.685099         6.375743
  C          5.399151        -1.665361         6.007926
  C          5.687720        -0.335105         6.374185
  C          1.670811         5.401530         6.005651
  C          0.340205         5.687349         6.372697
  C         -3.734387        -4.246621         6.593194
  C         -2.630056        -5.013825         6.965721
  C          4.244858        -3.727267         6.594049
  C          5.012857        -2.623225         6.965824
  C          3.734730         4.250585         6.591037
  C          2.630052         5.017466         6.963156
  C         -5.014928         2.627916         6.963869
  C          2.480395        -5.287115         7.171194
  C          3.557984        -4.538126         7.545634
  C          5.296423         2.487559         7.167920
  C          4.547389         3.565256         7.542314
  C         -5.294721        -2.482274         7.169245
  C         -4.546284        -3.560081         7.544168
  H          0.109533         5.726678         7.431411
  H         -1.918040         5.821986         7.927200
  H         -3.842296         4.477362         8.587836
  H         -5.165758         2.415363         8.017160
  H         -5.728903         0.108501         7.432327
  H         -5.826624        -1.919419         7.928142
  H         -4.481011        -3.842827         8.589301
  H         -2.417279        -5.164004         8.019060
  H         -0.109826        -5.724463         7.434444
  H          1.917533        -5.818401         7.930519
  H          3.840420        -4.471785         8.590784
  H          5.163036        -2.409786         8.019026
  H          5.727691        -0.103540         7.432664
  H          5.828849         1.925253         7.926917
  H          4.481971         3.848553         8.587280
  H          2.417243         5.168196         8.016434
  H          2.081969        -5.770769        -7.926084
  H         -0.261982        -5.898206        -8.586984
  H         -2.574947        -5.089096        -8.016752
  H         -4.440313        -3.619636        -7.432261
  H         -5.767555        -2.083445        -7.928285
  H         -5.894729         0.260520        -8.589262
  H         -5.086217         2.573516        -8.018655
  H         -3.617428         4.439279        -7.433623
  H         -2.081642         5.767002        -7.929177
  H          0.262602         5.894328        -8.590129
  H          2.575332         5.085011        -8.019399
  H          4.440408         3.615381        -7.434085
  H          5.767267         2.078762        -7.929276
  H          5.894953        -0.265586        -8.588798
  H          5.087224        -2.578419        -8.016806
  H          3.618323        -4.443627        -7.430925
  X         0.000000         0.000000         0.000000
  X         0.000000         0.000000        10.000000
